[Molden Format]
[Atoms] (AU)
S    1   16       -16.327247698642       0.323170404732       1.003625981576
O    2    8       -17.130272253089      -2.790253738561      -0.157914090537
N    3    7        18.432475284177      -0.289749897815      -0.373213320538
C    4    6       -17.093046240053       2.340041560294      -1.661114189105
C    5    6        -7.683916117729       0.206922586015       0.401655826067
C    6    6        14.410618575686      -2.480224138432      -0.335673902775
C    7    6        17.028828676838      -2.429280119930      -0.362941512322
C    8    6        17.096959212048       1.892958420486      -0.355390665360
C    9    6        14.481775329061       2.026092507614      -0.327484711374
C   10    6        -9.123084893073      -1.915101043403      -0.229977758114
C   11    6       -11.733121031827      -1.836731449151      -0.062561143421
C   12    6       -11.526344608428       2.468133315037       1.385919770647
C   13    6        -8.919433889197       2.400294106139       1.209679931446
C   14    6        13.075775450751      -0.205526778146      -0.316753870598
C   15    6        -4.940541881522       0.139326145960       0.239802679275
C   16    6        -2.717540044776       0.088052311902       0.122621880169
C   17    6        10.329574676580      -0.161001478923      -0.280802935524
C   18    6         8.103403594607      -0.122123894149      -0.243439538757
C   19    6         5.238813592918      -4.787669120890      -0.247615055034
C   20    6         3.913275660212      -6.949626390628      -0.236592273525
C   21    6         1.193703983409      -6.896822353568      -0.145405633939
C   22    6        -0.043512947966      -4.684402643999      -0.070990550218
C   23    6         5.425565827484       4.648645024575      -0.132038164200
C   24    6         4.186995625892       6.860709947087      -0.069433144831
C   25    6         1.467624770697       6.913305442783       0.021178901924
C   26    6         0.144068383999       4.750302121412       0.044444472370
C   27    6         5.358714084693      -0.070250142436      -0.179130226003
C   28    6         3.989521390918      -2.352759025419      -0.171099872821
C   29    6         1.302778983587      -2.300516692875      -0.081919062237
C   30    6         0.025004651061       0.033146744810      -0.000287479944
C   31    6         1.394582057247       2.315816940344      -0.022042137437
C   32    6         4.080902941353       2.263936546114      -0.112997171718
C   33    6       -12.937066932064       0.348575448994       0.736325968716
H   34    1       -16.223639331320       4.185782047448      -1.446444958752
H   35    1       -16.464593717838       1.481889684312      -3.415794121824
H   36    1       -19.130699643118       2.561406183093      -1.722730670621
H   37    1        18.205192043661       3.622049980484      -0.362615757799
H   38    1        13.546306679135       3.843522929092      -0.313193525429
H   39    1        18.082088350531      -4.192361049419      -0.376794109140
H   40    1        13.418451779578      -4.267388474056      -0.327825228981
H   41    1       -12.453041393563       4.175429552765       2.031813819315
H   42    1        -7.819162245265       4.050522648813       1.711534347609
H   43    1       -12.903410622416      -3.452337262570      -0.542038977539
H   44    1        -8.185461397074      -3.623166748409      -0.854916940988
H   45    1         7.280993072380      -4.811715689828      -0.315532962586
H   46    1         4.865664148543      -8.759559031318      -0.295234842440
H   47    1         0.169798014162      -8.668103884523      -0.137505764693
H   48    1        -2.085187226071      -4.627705751796      -0.001030209921
H   49    1         7.467099086990       4.593468371292      -0.201116698635
H   50    1         5.210389293609       8.632288971535      -0.086875049020
H   51    1         0.514550892998       8.723012879232       0.069136812246
H   52    1        -1.898278976113       4.772634585165       0.110538301192
[GTO]
  1 0
 s    3  1.00
      533.1257359000         0.1543289673
       97.1095183000         0.5353281423
       26.2816254200         0.4446345422
 s    3  1.00
       33.3297517300        -0.0999672292
        7.7451175210         0.3995128261
        2.5189525990         0.7001154689
 p    3  1.00
       33.3297517300         0.1559162750
        7.7451175210         0.6076837186
        2.5189525990         0.3919573931
 s    3  1.00
        2.0291942740        -0.2196203690
        0.5661400518         0.2255954336
        0.2215833792         0.9003984260
 p    3  1.00
        2.0291942740         0.0105876043
        0.5661400518         0.5951670053
        0.2215833792         0.4620010120

  2 0
 s    3  1.00
      130.7093200000         0.1543289700
       23.8088610000         0.5353281400
        6.4436083000         0.4446345400
 s    3  1.00
        5.0331513000        -0.0999672300
        1.1695961000         0.3995128300
        0.3803890000         0.7001154700
 p    3  1.00
        5.0331513000         0.1559162700
        1.1695961000         0.6076837200
        0.3803890000         0.3919573900

  3 0
 s    3  1.00
       99.1061690000         0.1543289700
       18.0523120000         0.5353281400
        4.8856602000         0.4446345400
 s    3  1.00
        3.7804559000        -0.0999672300
        0.8784966000         0.3995128300
        0.2857144000         0.7001154700
 p    3  1.00
        3.7804559000         0.1559162700
        0.8784966000         0.6076837200
        0.2857144000         0.3919573900

  4 0
 s    3  1.00
       71.6168370000         0.1543289700
       13.0450960000         0.5353281400
        3.5305122000         0.4446345400
 s    3  1.00
        2.9412494000        -0.0999672300
        0.6834831000         0.3995128300
        0.2222899000         0.7001154700
 p    3  1.00
        2.9412494000         0.1559162700
        0.6834831000         0.6076837200
        0.2222899000         0.3919573900

  5 0
 s    3  1.00
       71.6168370000         0.1543289700
       13.0450960000         0.5353281400
        3.5305122000         0.4446345400
 s    3  1.00
        2.9412494000        -0.0999672300
        0.6834831000         0.3995128300
        0.2222899000         0.7001154700
 p    3  1.00
        2.9412494000         0.1559162700
        0.6834831000         0.6076837200
        0.2222899000         0.3919573900

  6 0
 s    3  1.00
       71.6168370000         0.1543289700
       13.0450960000         0.5353281400
        3.5305122000         0.4446345400
 s    3  1.00
        2.9412494000        -0.0999672300
        0.6834831000         0.3995128300
        0.2222899000         0.7001154700
 p    3  1.00
        2.9412494000         0.1559162700
        0.6834831000         0.6076837200
        0.2222899000         0.3919573900

  7 0
 s    3  1.00
       71.6168370000         0.1543289700
       13.0450960000         0.5353281400
        3.5305122000         0.4446345400
 s    3  1.00
        2.9412494000        -0.0999672300
        0.6834831000         0.3995128300
        0.2222899000         0.7001154700
 p    3  1.00
        2.9412494000         0.1559162700
        0.6834831000         0.6076837200
        0.2222899000         0.3919573900

  8 0
 s    3  1.00
       71.6168370000         0.1543289700
       13.0450960000         0.5353281400
        3.5305122000         0.4446345400
 s    3  1.00
        2.9412494000        -0.0999672300
        0.6834831000         0.3995128300
        0.2222899000         0.7001154700
 p    3  1.00
        2.9412494000         0.1559162700
        0.6834831000         0.6076837200
        0.2222899000         0.3919573900

  9 0
 s    3  1.00
       71.6168370000         0.1543289700
       13.0450960000         0.5353281400
        3.5305122000         0.4446345400
 s    3  1.00
        2.9412494000        -0.0999672300
        0.6834831000         0.3995128300
        0.2222899000         0.7001154700
 p    3  1.00
        2.9412494000         0.1559162700
        0.6834831000         0.6076837200
        0.2222899000         0.3919573900

  10 0
 s    3  1.00
       71.6168370000         0.1543289700
       13.0450960000         0.5353281400
        3.5305122000         0.4446345400
 s    3  1.00
        2.9412494000        -0.0999672300
        0.6834831000         0.3995128300
        0.2222899000         0.7001154700
 p    3  1.00
        2.9412494000         0.1559162700
        0.6834831000         0.6076837200
        0.2222899000         0.3919573900

  11 0
 s    3  1.00
       71.6168370000         0.1543289700
       13.0450960000         0.5353281400
        3.5305122000         0.4446345400
 s    3  1.00
        2.9412494000        -0.0999672300
        0.6834831000         0.3995128300
        0.2222899000         0.7001154700
 p    3  1.00
        2.9412494000         0.1559162700
        0.6834831000         0.6076837200
        0.2222899000         0.3919573900

  12 0
 s    3  1.00
       71.6168370000         0.1543289700
       13.0450960000         0.5353281400
        3.5305122000         0.4446345400
 s    3  1.00
        2.9412494000        -0.0999672300
        0.6834831000         0.3995128300
        0.2222899000         0.7001154700
 p    3  1.00
        2.9412494000         0.1559162700
        0.6834831000         0.6076837200
        0.2222899000         0.3919573900

  13 0
 s    3  1.00
       71.6168370000         0.1543289700
       13.0450960000         0.5353281400
        3.5305122000         0.4446345400
 s    3  1.00
        2.9412494000        -0.0999672300
        0.6834831000         0.3995128300
        0.2222899000         0.7001154700
 p    3  1.00
        2.9412494000         0.1559162700
        0.6834831000         0.6076837200
        0.2222899000         0.3919573900

  14 0
 s    3  1.00
       71.6168370000         0.1543289700
       13.0450960000         0.5353281400
        3.5305122000         0.4446345400
 s    3  1.00
        2.9412494000        -0.0999672300
        0.6834831000         0.3995128300
        0.2222899000         0.7001154700
 p    3  1.00
        2.9412494000         0.1559162700
        0.6834831000         0.6076837200
        0.2222899000         0.3919573900

  15 0
 s    3  1.00
       71.6168370000         0.1543289700
       13.0450960000         0.5353281400
        3.5305122000         0.4446345400
 s    3  1.00
        2.9412494000        -0.0999672300
        0.6834831000         0.3995128300
        0.2222899000         0.7001154700
 p    3  1.00
        2.9412494000         0.1559162700
        0.6834831000         0.6076837200
        0.2222899000         0.3919573900

  16 0
 s    3  1.00
       71.6168370000         0.1543289700
       13.0450960000         0.5353281400
        3.5305122000         0.4446345400
 s    3  1.00
        2.9412494000        -0.0999672300
        0.6834831000         0.3995128300
        0.2222899000         0.7001154700
 p    3  1.00
        2.9412494000         0.1559162700
        0.6834831000         0.6076837200
        0.2222899000         0.3919573900

  17 0
 s    3  1.00
       71.6168370000         0.1543289700
       13.0450960000         0.5353281400
        3.5305122000         0.4446345400
 s    3  1.00
        2.9412494000        -0.0999672300
        0.6834831000         0.3995128300
        0.2222899000         0.7001154700
 p    3  1.00
        2.9412494000         0.1559162700
        0.6834831000         0.6076837200
        0.2222899000         0.3919573900

  18 0
 s    3  1.00
       71.6168370000         0.1543289700
       13.0450960000         0.5353281400
        3.5305122000         0.4446345400
 s    3  1.00
        2.9412494000        -0.0999672300
        0.6834831000         0.3995128300
        0.2222899000         0.7001154700
 p    3  1.00
        2.9412494000         0.1559162700
        0.6834831000         0.6076837200
        0.2222899000         0.3919573900

  19 0
 s    3  1.00
       71.6168370000         0.1543289700
       13.0450960000         0.5353281400
        3.5305122000         0.4446345400
 s    3  1.00
        2.9412494000        -0.0999672300
        0.6834831000         0.3995128300
        0.2222899000         0.7001154700
 p    3  1.00
        2.9412494000         0.1559162700
        0.6834831000         0.6076837200
        0.2222899000         0.3919573900

  20 0
 s    3  1.00
       71.6168370000         0.1543289700
       13.0450960000         0.5353281400
        3.5305122000         0.4446345400
 s    3  1.00
        2.9412494000        -0.0999672300
        0.6834831000         0.3995128300
        0.2222899000         0.7001154700
 p    3  1.00
        2.9412494000         0.1559162700
        0.6834831000         0.6076837200
        0.2222899000         0.3919573900

  21 0
 s    3  1.00
       71.6168370000         0.1543289700
       13.0450960000         0.5353281400
        3.5305122000         0.4446345400
 s    3  1.00
        2.9412494000        -0.0999672300
        0.6834831000         0.3995128300
        0.2222899000         0.7001154700
 p    3  1.00
        2.9412494000         0.1559162700
        0.6834831000         0.6076837200
        0.2222899000         0.3919573900

  22 0
 s    3  1.00
       71.6168370000         0.1543289700
       13.0450960000         0.5353281400
        3.5305122000         0.4446345400
 s    3  1.00
        2.9412494000        -0.0999672300
        0.6834831000         0.3995128300
        0.2222899000         0.7001154700
 p    3  1.00
        2.9412494000         0.1559162700
        0.6834831000         0.6076837200
        0.2222899000         0.3919573900

  23 0
 s    3  1.00
       71.6168370000         0.1543289700
       13.0450960000         0.5353281400
        3.5305122000         0.4446345400
 s    3  1.00
        2.9412494000        -0.0999672300
        0.6834831000         0.3995128300
        0.2222899000         0.7001154700
 p    3  1.00
        2.9412494000         0.1559162700
        0.6834831000         0.6076837200
        0.2222899000         0.3919573900

  24 0
 s    3  1.00
       71.6168370000         0.1543289700
       13.0450960000         0.5353281400
        3.5305122000         0.4446345400
 s    3  1.00
        2.9412494000        -0.0999672300
        0.6834831000         0.3995128300
        0.2222899000         0.7001154700
 p    3  1.00
        2.9412494000         0.1559162700
        0.6834831000         0.6076837200
        0.2222899000         0.3919573900

  25 0
 s    3  1.00
       71.6168370000         0.1543289700
       13.0450960000         0.5353281400
        3.5305122000         0.4446345400
 s    3  1.00
        2.9412494000        -0.0999672300
        0.6834831000         0.3995128300
        0.2222899000         0.7001154700
 p    3  1.00
        2.9412494000         0.1559162700
        0.6834831000         0.6076837200
        0.2222899000         0.3919573900

  26 0
 s    3  1.00
       71.6168370000         0.1543289700
       13.0450960000         0.5353281400
        3.5305122000         0.4446345400
 s    3  1.00
        2.9412494000        -0.0999672300
        0.6834831000         0.3995128300
        0.2222899000         0.7001154700
 p    3  1.00
        2.9412494000         0.1559162700
        0.6834831000         0.6076837200
        0.2222899000         0.3919573900

  27 0
 s    3  1.00
       71.6168370000         0.1543289700
       13.0450960000         0.5353281400
        3.5305122000         0.4446345400
 s    3  1.00
        2.9412494000        -0.0999672300
        0.6834831000         0.3995128300
        0.2222899000         0.7001154700
 p    3  1.00
        2.9412494000         0.1559162700
        0.6834831000         0.6076837200
        0.2222899000         0.3919573900

  28 0
 s    3  1.00
       71.6168370000         0.1543289700
       13.0450960000         0.5353281400
        3.5305122000         0.4446345400
 s    3  1.00
        2.9412494000        -0.0999672300
        0.6834831000         0.3995128300
        0.2222899000         0.7001154700
 p    3  1.00
        2.9412494000         0.1559162700
        0.6834831000         0.6076837200
        0.2222899000         0.3919573900

  29 0
 s    3  1.00
       71.6168370000         0.1543289700
       13.0450960000         0.5353281400
        3.5305122000         0.4446345400
 s    3  1.00
        2.9412494000        -0.0999672300
        0.6834831000         0.3995128300
        0.2222899000         0.7001154700
 p    3  1.00
        2.9412494000         0.1559162700
        0.6834831000         0.6076837200
        0.2222899000         0.3919573900

  30 0
 s    3  1.00
       71.6168370000         0.1543289700
       13.0450960000         0.5353281400
        3.5305122000         0.4446345400
 s    3  1.00
        2.9412494000        -0.0999672300
        0.6834831000         0.3995128300
        0.2222899000         0.7001154700
 p    3  1.00
        2.9412494000         0.1559162700
        0.6834831000         0.6076837200
        0.2222899000         0.3919573900

  31 0
 s    3  1.00
       71.6168370000         0.1543289700
       13.0450960000         0.5353281400
        3.5305122000         0.4446345400
 s    3  1.00
        2.9412494000        -0.0999672300
        0.6834831000         0.3995128300
        0.2222899000         0.7001154700
 p    3  1.00
        2.9412494000         0.1559162700
        0.6834831000         0.6076837200
        0.2222899000         0.3919573900

  32 0
 s    3  1.00
       71.6168370000         0.1543289700
       13.0450960000         0.5353281400
        3.5305122000         0.4446345400
 s    3  1.00
        2.9412494000        -0.0999672300
        0.6834831000         0.3995128300
        0.2222899000         0.7001154700
 p    3  1.00
        2.9412494000         0.1559162700
        0.6834831000         0.6076837200
        0.2222899000         0.3919573900

  33 0
 s    3  1.00
       71.6168370000         0.1543289700
       13.0450960000         0.5353281400
        3.5305122000         0.4446345400
 s    3  1.00
        2.9412494000        -0.0999672300
        0.6834831000         0.3995128300
        0.2222899000         0.7001154700
 p    3  1.00
        2.9412494000         0.1559162700
        0.6834831000         0.6076837200
        0.2222899000         0.3919573900

  34 0
 s    3  1.00
        3.4252509100         0.1543289700
        0.6239137300         0.5353281400
        0.1688554000         0.4446345400

  35 0
 s    3  1.00
        3.4252509100         0.1543289700
        0.6239137300         0.5353281400
        0.1688554000         0.4446345400

  36 0
 s    3  1.00
        3.4252509100         0.1543289700
        0.6239137300         0.5353281400
        0.1688554000         0.4446345400

  37 0
 s    3  1.00
        3.4252509100         0.1543289700
        0.6239137300         0.5353281400
        0.1688554000         0.4446345400

  38 0
 s    3  1.00
        3.4252509100         0.1543289700
        0.6239137300         0.5353281400
        0.1688554000         0.4446345400

  39 0
 s    3  1.00
        3.4252509100         0.1543289700
        0.6239137300         0.5353281400
        0.1688554000         0.4446345400

  40 0
 s    3  1.00
        3.4252509100         0.1543289700
        0.6239137300         0.5353281400
        0.1688554000         0.4446345400

  41 0
 s    3  1.00
        3.4252509100         0.1543289700
        0.6239137300         0.5353281400
        0.1688554000         0.4446345400

  42 0
 s    3  1.00
        3.4252509100         0.1543289700
        0.6239137300         0.5353281400
        0.1688554000         0.4446345400

  43 0
 s    3  1.00
        3.4252509100         0.1543289700
        0.6239137300         0.5353281400
        0.1688554000         0.4446345400

  44 0
 s    3  1.00
        3.4252509100         0.1543289700
        0.6239137300         0.5353281400
        0.1688554000         0.4446345400

  45 0
 s    3  1.00
        3.4252509100         0.1543289700
        0.6239137300         0.5353281400
        0.1688554000         0.4446345400

  46 0
 s    3  1.00
        3.4252509100         0.1543289700
        0.6239137300         0.5353281400
        0.1688554000         0.4446345400

  47 0
 s    3  1.00
        3.4252509100         0.1543289700
        0.6239137300         0.5353281400
        0.1688554000         0.4446345400

  48 0
 s    3  1.00
        3.4252509100         0.1543289700
        0.6239137300         0.5353281400
        0.1688554000         0.4446345400

  49 0
 s    3  1.00
        3.4252509100         0.1543289700
        0.6239137300         0.5353281400
        0.1688554000         0.4446345400

  50 0
 s    3  1.00
        3.4252509100         0.1543289700
        0.6239137300         0.5353281400
        0.1688554000         0.4446345400

  51 0
 s    3  1.00
        3.4252509100         0.1543289700
        0.6239137300         0.5353281400
        0.1688554000         0.4446345400

  52 0
 s    3  1.00
        3.4252509100         0.1543289700
        0.6239137300         0.5353281400
        0.1688554000         0.4446345400

[5D]
[9G]

[MO]
 Sym= A
 Ene= -6.74538422496697039e-16
 Spin= Alpha
 Occup= -1.34907684499339408e-15
  1 -4.21703363186595528e-02
  2  1.25558775611368023e-01
  3  5.21708470081637746e-04
  4 -1.47843155602102160e-02
  5 -5.63855089832818943e-02
  6 -1.97402569386493310e-01
  7 -2.04165028004225264e-02
  8  5.72387985017727046e-04
  9  1.91733427869137080e-01
 10  1.24883501530477742e-03
 11  4.21110731523128331e-03
 12 -2.05292547648287527e-01
 13  1.43881456770072663e-01
 14 -4.58432241404148483e-02
 15  1.34426595323284565e-02
 16 -8.84953832777802957e-02
 17  8.28083750325924045e-02
 18  3.72785455685157360e-03
 19 -1.15803219519834797e-03
 20  9.56959342948818410e-03
 21  1.67184596127578244e-01
 22  7.83942485777788800e-02
 23 -1.99980959102162292e-02
 24  5.75361071611960474e-03
 25  1.28355627601677916e-02
 26 -3.10620112913091544e-03
 27 -4.90204042425983685e-02
 28 -8.56903917471558557e-02
 29 -2.01723493462757676e-02
 30  1.79047703063691180e-02
 31  1.57770049709340027e-01
 32  1.00597262049932440e-01
 33 -3.61778031433666394e-02
 34  7.77003353386276768e-02
 35  4.58825031116014137e-02
 36 -1.53900790559098166e-01
 37  1.19720942645782799e-01
 38 -6.57935880395966056e-03
 39 -2.66474857811276993e-02
 40 -2.09363240206397461e-02
 41  1.21786599619641403e-01
 42 -1.33761347061591623e-01
 43 -1.86185430098263105e-01
 44 -9.76275918610165216e-02
 45  1.09523467247501421e-01
 46 -2.80787520860573347e-01
 47  1.58511886324472322e-02
 48  1.08407430727958234e-01
 49  1.80016537552566067e-02
 50 -2.27248852482073924e-02
 51  1.00230575764732807e-01
 52 -3.87869842185909613e-02
 53 -5.49560374437373725e-02
 54  5.01950195538222385e-02
 55  1.31250777818807222e-02
 56  4.16440539313201324e-02
 57 -1.68950662962735310e-01
 58  2.20155285019804497e-01
 59  1.24328513022498328e-02
 60 -3.70567107428561998e-02
 61  2.01152895042250784e-01
 62  1.34760309368888970e-01
 63 -1.97261102515273123e-01
 64  6.49990539489403302e-02
 65 -9.66821876150708442e-02
 66  9.98425907544076181e-03
 67  5.84730405689816088e-02
 68  3.85136535241983047e-02
 69  4.50257969438378342e-02
 70 -8.56905161682016379e-03
 71  8.25433295627781421e-02
 72  8.98534103327720129e-02
 73  2.12063406768535107e-01
 74 -4.41516189249522347e-03
 75 -1.24393591107994708e-01
 76 -2.79317701647827620e-02
 77 -1.16465584258943294e-01
 78 -6.84156681483156920e-02
 79  2.35406884349124226e-02
 80 -6.44250599441578004e-02
 81  1.79427947510605729e-01
 82  3.74034868992440747e-02
 83  4.95574198854063924e-02
 84 -1.68168995511038498e-02
 85 -5.27258109504749814e-02
 86  1.52110409251555861e-01
 87  1.63964084197535144e-02
 88 -9.37900773199554783e-02
 89  9.25627003568419565e-02
 90  4.79037527663963916e-02
 91 -1.60439829296361886e-01
 92 -5.57178766754460944e-02
 93 -5.02471934050086402e-02
 94  1.03021221945460081e-02
 95  2.13082603469992825e-02
 96  5.28462462244441156e-02
 97  2.65878776388864146e-01
 98 -3.04175298739494220e-02
 99 -1.77773216795690464e-03
100  5.32492784264613356e-03
101  1.25631689463979512e-01
102  3.03176406586737543e-02
103  1.44290939568722021e-01
104 -7.55791777997692760e-03
105 -3.74184859516030824e-02
106  1.85675399618272480e-01
107 -1.82640978474568505e-01
108 -1.63992834264112097e-01
109  3.98790909372946367e-02
110  7.40459312776196726e-02
111 -1.16818314267871051e-01
112  9.64171726892055908e-02
113  3.12729599850675999e-02
114  9.69361686294691917e-03
115 -1.81226899490619514e-02
116  5.96207745245791315e-02
117 -1.30290951042610598e-01
118 -1.34629305489930046e-01
119 -2.82779060729910631e-02
120 -9.53590629423824512e-03
121 -4.76140281615883218e-02
122  1.87828744740557163e-01
123  1.00980484508885443e-01
124  4.02146848943315816e-02
125 -2.37490916862816620e-01
126  2.01301316513820244e-01
127  5.78528403357519982e-03
128  1.59455708517299954e-01
129 -2.79458347450231674e-02
130 -3.02204893076999520e-02
131 -1.55160161444678313e-01
132 -8.24475922465173032e-03
133  9.98492239656816882e-02
134  5.16531988628303323e-02
135  1.93106835263214330e-02
136 -1.34730876258953858e-01
137  1.99376848512238608e-01
138  4.90348446584504688e-02
139 -1.29570729741677687e-01
140 -4.01579296793255838e-02
141  2.11177943325452006e-01
142 -5.96907305948862349e-02
143  2.18624155568657684e-02
144 -2.43257478248210257e-02
145 -3.06060843877017687e-02
146  2.27820093833700464e-02
147 -2.34953921367622082e-01
148 -2.62840081591289298e-02
149  2.62242127676832089e-02
150  7.61949992126210573e-03
151  9.62356884752147389e-03
152  2.52551606336873125e-01
153  1.65376669918784580e-01
154 -1.47111565491020169e-01
155  1.47925500674126985e-02
156 -1.30321790834470680e-01
157 -1.28919801834428360e-01
158  2.53267593409551961e-01
159  5.88750478017836601e-02
160 -3.08027443317162967e-02
161  1.26673714591269804e-01
162 -1.29670649509169844e-01
163 -2.00768087878665513e-01
164  1.23516028077438222e-01
165  4.19033835058694390e-02
166 -2.63043921088196631e-01
167 -2.53720383563503016e-01
168  2.30900056090772993e-01
169 -2.03924525059963231e-02
170 -1.56513421088151222e-01
171 -3.91954734837654389e-02
172 -5.26333981761996916e-02
173  9.93077999883406892e-02
174  9.52642903485826642e-02
175 -1.09185705050861365e-01
176 -7.84266118385670147e-02
177  1.66928815964606042e-01
178 -5.81603879057576850e-02
179  5.70883750651081986e-03
180  3.09482379859340045e-02
181 -2.25193032590974840e-01
182  7.48808403530852318e-02
183 -2.87063403144452445e-01
184  5.32360019862054834e-02
185 -1.67170929664548704e-02
186 -1.65952526526600225e-01
187 -2.35566983478796760e-01
188  5.11782162672027446e-03
 Sym= A
 Ene= -6.45854356132983664e-16
 Spin= Alpha
 Occup= -1.29170871226596733e-15
  1 -4.48705711457180398e-02
  2  1.36934523122157176e-01
  3 -7.69283191355494764e-03
  4 -4.41348435871430789e-03
  5  1.10149213175767396e-02
  6 -1.09538369058242893e-01
  7 -5.43231406135436731e-02
  8 -9.39353372333505826e-02
  9  8.12214086924254071e-03
 10  7.63792043979038410e-02
 11 -2.98617583669439468e-01
 12  9.79748835845768579e-02
 13 -1.75232800419734408e-01
 14  1.64545757169272874e-02
 15 -5.97889646908277440e-03
 16  3.49645232737497771e-02
 17 -6.30980568021681926e-02
 18 -6.39310160107193631e-02
 19 -2.90063746908350746e-02
 20  3.70859331164381939e-02
 21 -1.37182882210494711e-01
 22 -1.22249580490861695e-01
 23  3.83697996568459002e-02
 24 -4.62416663176918596e-02
 25 -3.32865470762877813e-02
 26  1.26716830599161480e-02
 27 -9.17897813102427039e-03
 28  1.60795138662756416e-02
 29 -3.25999384853667487e-02
 30  3.85295558955512790e-02
 31 -2.95641724364922864e-01
 32  6.36958632954318787e-02
 33 -1.66314028586286231e-02
 34  2.68593960589455019e-02
 35  6.65851189125838128e-02
 36 -2.30041718398580036e-01
 37  3.03221509160890709e-03
 38  2.61999436788409347e-02
 39  8.13122608648055543e-03
 40 -7.17495040878774748e-02
 41  2.15488614573590864e-01
 42  9.91653612432123605e-02
 43  1.13475013659832188e-01
 44  5.37041366350503140e-03
 45 -1.02314766994442974e-01
 46  2.33928360593839924e-01
 47  1.05369289568431168e-01
 48 -2.16211521189563383e-01
 49  2.72149436132523778e-02
 50 -3.01379634121939528e-02
 51  1.51374292613872669e-01
 52 -7.71500681549714268e-02
 53  2.80862781052567748e-02
 54 -1.20928316250475260e-01
 55 -3.99455641631526956e-02
 56  5.17335290895229727e-02
 57 -1.41765022536268742e-01
 58  1.05093260611764897e-01
 59 -1.01945273413546981e-02
 60 -4.55172148368042546e-03
 61  7.36071494853167974e-02
 62  1.71969634237993357e-01
 63  1.60619174187093483e-01
 64  1.03197296842872363e-01
 65 -2.35075299202117033e-01
 66  4.94594789600928050e-02
 67  2.86796188145846051e-02
 68  2.00587139475146871e-02
 69 -8.96201108849711686e-02
 70 -1.37792227106477323e-03
 71  1.30106030695829496e-02
 72 -1.27276322572200312e-01
 73 -1.34483488663170003e-01
 74  9.36401651192750317e-03
 75 -8.93267268775478768e-02
 76  1.34744297861681100e-01
 77 -2.72157360424055868e-02
 78  5.14568721230368540e-03
 79 -6.20253862890495639e-02
 80 -3.95461473468862387e-02
 81 -3.18657947344978387e-03
 82  4.72909334062478828e-02
 83 -2.75879336018272046e-02
 84  1.13148824099847858e-02
 85  3.49443460666212305e-02
 86 -8.58497137193875021e-02
 87 -4.06482729760701683e-02
 88  7.73068864753258169e-03
 89  6.59711032742751804e-03
 90 -3.67687355425934809e-02
 91  1.04943957214455222e-01
 92 -1.03029213813875791e-02
 93 -4.87051080900746530e-02
 94  6.23722956583163332e-02
 95 -9.27564648373156164e-02
 96  1.01459531845450077e-01
 97  6.45773620138317128e-02
 98  1.03572141874122038e-02
 99 -5.09745615060843999e-03
100  2.00032377524032336e-02
101  8.12729914060078273e-02
102 -1.33491511696494231e-01
103 -4.05805574591373078e-02
104 -3.90920701895581483e-03
105 -2.43280384814947761e-03
106  7.78994697068916275e-02
107 -1.60810761950121589e-01