
    -----------------------------------------------------------------------
          Psi4: An Open-Source Ab Initio Electronic Structure Package
                               Psi4 1.3.2 release

                         Git: Rev {HEAD} ecbda83 


    R. M. Parrish, L. A. Burns, D. G. A. Smith, A. C. Simmonett,
    A. E. DePrince III, E. G. Hohenstein, U. Bozkaya, A. Yu. Sokolov,
    R. Di Remigio, R. M. Richard, J. F. Gonthier, A. M. James,
    H. R. McAlexander, A. Kumar, M. Saitow, X. Wang, B. P. Pritchard,
    P. Verma, H. F. Schaefer III, K. Patkowski, R. A. King, E. F. Valeev,
    F. A. Evangelista, J. M. Turney, T. D. Crawford, and C. D. Sherrill,
    J. Chem. Theory Comput. 13(7) pp 3185--3197 (2017).
    (doi: 10.1021/acs.jctc.7b00174)


                         Additional Contributions by
    P. Kraus, H. Kruse, M. H. Lechner, M. C. Schieber, R. A. Shaw,
    A. Alenaizan, R. Galvelis, Z. L. Glick, S. Lehtola, and J. P. Misiewicz

    -----------------------------------------------------------------------


    Psi4 started on: Monday, 27 April 2020 05:07PM

    Process ID: 4442
    Host:       Aristotle
    PSIDATADIR: /home/joseph/miniconda3/share/psi4
    Memory:     500.0 MiB
    Threads:    1
    
  ==> Input File <==

--------------------------------------------------------------------------
molecule h2o {
  O
  H 1 0.9894093
  H 1 0.9894093 2 100.02688
}

set basis sto-3g
set scf_type pk
set scf print 1
set normal_modes_write on

optimize('hf')

e, wfn = freq('hf', return_wfn=True)

molden(wfn, 'struc.molden', density_a=wfn.Da())
--------------------------------------------------------------------------
gradient() will perform analytic gradient computation.

*** tstart() called on Aristotle
*** at Mon Apr 27 17:07:26 2020

   => Loading Basis Set <=

    Name: STO-3G
    Role: ORBITAL
    Keyword: BASIS
    atoms 1   entry O          line    81 file /home/joseph/miniconda3/share/psi4/basis/sto-3g.gbs 
    atoms 2-3 entry H          line    19 file /home/joseph/miniconda3/share/psi4/basis/sto-3g.gbs 


         ---------------------------------------------------------
                                   SCF
               by Justin Turney, Rob Parrish, Andy Simmonett
                          and Daniel G. A. Smith
                              RHF Reference
                        1 Threads,    500 MiB Core
         ---------------------------------------------------------

  ==> Geometry <==

    Molecular point group: c2v
    Full point group: C2v

    Geometry (in Angstrom), charge = 0, multiplicity = 1:

       Center              X                  Y                   Z               Mass       
    ------------   -----------------  -----------------  -----------------  -----------------
         O            0.000000000000     0.000000000000    -0.071155726203    15.994914619570
         H            0.000000000000    -0.758080658651     0.564646505552     1.007825032230
         H            0.000000000000     0.758080658651     0.564646505552     1.007825032230

  Running in c2v symmetry.

  Rotational constants: A =     23.29607  B =     14.55293  C =      8.95733 [cm^-1]
  Rotational constants: A = 698398.61557  B = 436285.95248  C = 268534.10523 [MHz]
  Nuclear repulsion =    8.906489259378377

  Charge       = 0
  Multiplicity = 1
  Electrons    = 10
  Nalpha       = 5
  Nbeta        = 5

  ==> Algorithm <==

  SCF Algorithm Type is PK.
  DIIS enabled.
  MOM disabled.
  Fractional occupation disabled.
  Guess Type is SAD.
  Energy threshold   = 1.00e-08
  Density threshold  = 1.00e-08
  Integral threshold = 0.00e+00

  ==> Primary Basis <==

  Basis Set: STO-3G
    Blend: STO-3G
    Number of shells: 5
    Number of basis function: 7
    Number of Cartesian functions: 7
    Spherical Harmonics?: true
    Max angular momentum: 1

  ==> Pre-Iterations <==

   -------------------------------------------------------
    Irrep   Nso     Nmo     Nalpha   Nbeta   Ndocc  Nsocc
   -------------------------------------------------------
     A1         4       4       0       0       0       0
     A2         0       0       0       0       0       0
     B1         1       1       0       0       0       0
     B2         2       2       0       0       0       0
   -------------------------------------------------------
    Total       7       7       5       5       5       0
   -------------------------------------------------------

  ==> Integral Setup <==

  Using in-core PK algorithm.
   Calculation information:
      Number of atoms:                   3
      Number of AO shells:               5
      Number of primitives:             15
      Number of atomic orbitals:         7
      Number of basis functions:         7

      Integral cutoff                 1.00e-12
      Number of threads:                 1

  Performing in-core PK
  Using 812 doubles for integral storage.
  We computed 120 shell quartets total.
  Whereas there are 120 unique shell quartets.

  ==> DiskJK: Disk-Based J/K Matrices <==

    J tasked:                  Yes
    K tasked:                  Yes
    wK tasked:                  No
    Memory [MiB]:              375
    Schwarz Cutoff:          1E-12

    OpenMP threads:              1

  Minimum eigenvalue in the overlap matrix is 3.6318018686E-01.
  Using Symmetric Orthogonalization.

  SCF Guess: Superposition of Atomic Densities via on-the-fly atomic UHF.

  ==> Iterations <==

                        Total Energy        Delta E     RMS |[F,P]|

   @RHF iter SAD:   -74.14826254766859   -7.41483e+01   0.00000e+00 
   @RHF iter   1:   -74.91085804691126   -7.62595e-01   5.64728e-02 DIIS
   @RHF iter   2:   -74.96483484512699   -5.39768e-02   9.07035e-03 DIIS
   @RHF iter   3:   -74.96583206277573   -9.97218e-04   1.96052e-03 DIIS
   @RHF iter   4:   -74.96590036438707   -6.83016e-05   1.59774e-04 DIIS
   @RHF iter   5:   -74.96590118275850   -8.18371e-07   1.84024e-05 DIIS
   @RHF iter   6:   -74.96590119229857   -9.54007e-09   2.63375e-07 DIIS
   @RHF iter   7:   -74.96590119230018   -1.60583e-12   1.00653e-09 DIIS
  Energy and wave function converged.


  ==> Post-Iterations <==

    Orbital Energies [Eh]
    ---------------------

    Doubly Occupied:                                                      

       1A1   -20.251577     2A1    -1.257549     1B2    -0.593855  
       3A1    -0.459730     1B1    -0.392617  

    Virtual:                                                              

       4A1     0.581794     2B2     0.692674  

    Final Occupation by Irrep:
             A1    A2    B1    B2 
    DOCC [     3,    0,    1,    1 ]

  @RHF Final Energy:   -74.96590119230018

   => Energetics <=

    Nuclear Repulsion Energy =              8.9064892593783771
    One-Electron Energy =                -121.8341245591876998
    Two-Electron Energy =                  37.9617341075091446
    Total Energy =                        -74.9659011923001799

Computation Completed


Properties will be evaluated at   0.000000,   0.000000,   0.000000 [a0]

Properties computed using the SCF density matrix

  Nuclear Dipole Moment: [e a0]
     X:     0.0000      Y:     0.0000      Z:     1.0583

  Electronic Dipole Moment: [e a0]
     X:     0.0000      Y:     0.0000      Z:    -0.3859

  Dipole Moment: [e a0]
     X:     0.0000      Y:     0.0000      Z:     0.6725     Total:     0.6725

  Dipole Moment: [D]
     X:     0.0000      Y:     0.0000      Z:     1.7092     Total:     1.7092


*** tstop() called on Aristotle at Mon Apr 27 17:07:26 2020
Module time:
	user time   =       0.40 seconds =       0.01 minutes
	system time =       0.00 seconds =       0.00 minutes
	total time  =          0 seconds =       0.00 minutes
Total time:
	user time   =       0.40 seconds =       0.01 minutes
	system time =       0.00 seconds =       0.00 minutes
	total time  =          0 seconds =       0.00 minutes

*** tstart() called on Aristotle
*** at Mon Apr 27 17:07:26 2020


         ------------------------------------------------------------
                                   SCF GRAD                          
                          Rob Parrish, Justin Turney,                
                       Andy Simmonett, and Alex Sokolov              
         ------------------------------------------------------------

  ==> Geometry <==

    Molecular point group: c2v
    Full point group: C2v

    Geometry (in Angstrom), charge = 0, multiplicity = 1:

       Center              X                  Y                   Z               Mass       
    ------------   -----------------  -----------------  -----------------  -----------------
         O            0.000000000000     0.000000000000    -0.071155726203    15.994914619570
         H            0.000000000000    -0.758080658651     0.564646505552     1.007825032230
         H            0.000000000000     0.758080658651     0.564646505552     1.007825032230

  Nuclear repulsion =    8.906489259378377

  ==> Basis Set <==

  Basis Set: STO-3G
    Blend: STO-3G
    Number of shells: 5
    Number of basis function: 7
    Number of Cartesian functions: 7
    Spherical Harmonics?: true
    Max angular momentum: 1

  ==> DirectJKGrad: Integral-Direct SCF Gradients <==

    Gradient:                    1
    J tasked:                  Yes
    K tasked:                  Yes
    wK tasked:                  No
    Integrals threads:           1
    Schwarz Cutoff:          0E+00


  -Total Gradient:
     Atom            X                  Y                   Z
    ------   -----------------  -----------------  -----------------
       1       -0.000000000000     0.000000000000     0.000000025581
       2       -0.000000000000     0.000000016289    -0.000000012790
       3        0.000000000000    -0.000000016289    -0.000000012790


*** tstop() called on Aristotle at Mon Apr 27 17:07:26 2020
Module time:
	user time   =       0.04 seconds =       0.00 minutes
	system time =       0.00 seconds =       0.00 minutes
	total time  =          0 seconds =       0.00 minutes
Total time:
	user time   =       0.44 seconds =       0.01 minutes
	system time =       0.00 seconds =       0.00 minutes
	total time  =          0 seconds =       0.00 minutes

			-----------------------------------------
			 OPTKING 2.0: for geometry optimizations 
			  - R.A. King,  Bethel University        
			-----------------------------------------

	Internal coordinates to be generated automatically.
	Detected frag 1 with atoms:  1 2 3
	---Fragment 1 Bond Connectivity---
	 1 : 2 3
	 2 : 1
	 3 : 1

	---Fragment 1 Geometry and Gradient---
	 O           0.0000000000        0.0000000000       -0.1344648348
	 H           0.0000000000       -1.4325648259        1.0670272532
	 H           0.0000000000        1.4325648259        1.0670272532
	            -0.0000000000        0.0000000000        0.0000000256
	            -0.0000000000        0.0000000163       -0.0000000128
	             0.0000000000       -0.0000000163       -0.0000000128

	Previous optimization step data not found.  Starting new optimization.

	---Fragment 1 Intrafragment Coordinates---
	 - Coordinate -           - BOHR/RAD -       - ANG/DEG -
	 R(1,2)           =         1.869713	       0.989409
	 R(1,3)           =         1.869713	       0.989409
	 B(2,1,3)         =         1.745798	     100.026880

	Current energy   :       -74.9659011923

	Generating empirical Hessian (Schlegel '84) for each fragment.
	Taking RFO optimization step.
	Going to follow RFO solution 1.
	Using RFO vector 1.
	Norm of target step-size    0.00000
	Projected energy change by RFO approximation:        -0.0000000000

	Back-transformation to cartesian coordinates...
	Successfully converged to displaced geometry.

	--- Internal Coordinate Step in ANG or DEG, aJ/ANG or AJ/DEG ---
	 ---------------------------------------------------------------------------
	   Coordinate                Previous        Force       Change         New 
	   ----------                --------       ------       ------       ------
	    1 R(1,2)          =      0.989409     0.000000     0.000000     0.989409
	    2 R(1,3)          =      0.989409     0.000000     0.000000     0.989409
	    3 B(2,1,3)        =    100.026880     0.000000     0.000000   100.026880
	 ---------------------------------------------------------------------------
	Successfully symmetrized geometry.

  ==> Convergence Check <==

  Measures of convergence in internal coordinates in au.
  Criteria marked as inactive (o), active & met (*), and active & unmet ( ).
  --------------------------------------------------------------------------------------------- ~
   Step     Total Energy     Delta E     MAX Force     RMS Force      MAX Disp      RMS Disp    ~
  --------------------------------------------------------------------------------------------- ~
    Convergence Criteria    1.00e-06 *    3.00e-04 *             o    1.20e-03 *             o  ~
  --------------------------------------------------------------------------------------------- ~
      1     -74.96590119   -7.50e+01      2.07e-08 *    1.69e-08 o    4.17e-08 *    3.44e-08 o  ~
  ---------------------------------------------------------------------------------------------


  **** Optimization is complete! (in 1 steps) ****

  ==> Optimization Summary <==

  Measures of convergence in internal coordinates in au.
  --------------------------------------------------------------------------------------------------------------- ~
   Step         Total Energy             Delta E       MAX Force       RMS Force        MAX Disp        RMS Disp  ~
  --------------------------------------------------------------------------------------------------------------- ~
      1     -74.965901192300    -74.965901192300      0.00000002      0.00000002      0.00000004      0.00000003  ~
  --------------------------------------------------------------------------------------------------------------- ~

	Writing optimization data to binary file.
	Final energy is    -74.9659011923002
	Final (previous) structure:
	Cartesian Geometry (in Angstrom)
	    O     0.0000000000   0.0000000000  -0.0711557259
	    H     0.0000000000  -0.7580806557   0.5646465033
	    H     0.0000000000   0.7580806557   0.5646465033
	Saving final (previous) structure.
			--------------------------
			 OPTKING Finished Execution 
			--------------------------

    Final optimized geometry and variables:
    Molecular point group: c2v
    Full point group: C2v

    Geometry (in Angstrom), charge = 0, multiplicity = 1:

    O       
    H             1    0.989409
    H             1    0.989409      2  100.026880

	Removing binary optimization data file.
	Cleaning optimization helper files.
gradient() will perform analytic gradient computation.

*** tstart() called on Aristotle
*** at Mon Apr 27 17:07:26 2020

   => Loading Basis Set <=

    Name: STO-3G
    Role: ORBITAL
    Keyword: BASIS
    atoms 1   entry O          line    81 file /home/joseph/miniconda3/share/psi4/basis/sto-3g.gbs 
    atoms 2-3 entry H          line    19 file /home/joseph/miniconda3/share/psi4/basis/sto-3g.gbs 


         ---------------------------------------------------------
                                   SCF
               by Justin Turney, Rob Parrish, Andy Simmonett
                          and Daniel G. A. Smith
                              RHF Reference
                        1 Threads,    500 MiB Core
         ---------------------------------------------------------

  ==> Geometry <==

    Molecular point group: c2v
    Full point group: C2v

    Geometry (in Angstrom), charge = 0, multiplicity = 1:

       Center              X                  Y                   Z               Mass       
    ------------   -----------------  -----------------  -----------------  -----------------
         O            0.000000000000     0.000000000000    -0.071155726203    15.994914619570
         H            0.000000000000    -0.758080658651     0.564646505552     1.007825032230
         H            0.000000000000     0.758080658651     0.564646505552     1.007825032230

  Running in c2v symmetry.

  Rotational constants: A =     23.29607  B =     14.55293  C =      8.95733 [cm^-1]
  Rotational constants: A = 698398.61557  B = 436285.95248  C = 268534.10523 [MHz]
  Nuclear repulsion =    8.906489259378379

  Charge       = 0
  Multiplicity = 1
  Electrons    = 10
  Nalpha       = 5
  Nbeta        = 5

  ==> Algorithm <==

  SCF Algorithm Type is PK.
  DIIS enabled.
  MOM disabled.
  Fractional occupation disabled.
  Guess Type is SAD.
  Energy threshold   = 1.00e-08
  Density threshold  = 1.00e-08
  Integral threshold = 0.00e+00

  ==> Primary Basis <==

  Basis Set: STO-3G
    Blend: STO-3G
    Number of shells: 5
    Number of basis function: 7
    Number of Cartesian functions: 7
    Spherical Harmonics?: true
    Max angular momentum: 1

  ==> Pre-Iterations <==

   -------------------------------------------------------
    Irrep   Nso     Nmo     Nalpha   Nbeta   Ndocc  Nsocc
   -------------------------------------------------------
     A1         4       4       0       0       0       0
     A2         0       0       0       0       0       0
     B1         1       1       0       0       0       0
     B2         2       2       0       0       0       0
   -------------------------------------------------------
    Total       7       7       5       5       5       0
   -------------------------------------------------------

  ==> Integral Setup <==

  Using in-core PK algorithm.
   Calculation information:
      Number of atoms:                   3
      Number of AO shells:               5
      Number of primitives:             15
      Number of atomic orbitals:         7
      Number of basis functions:         7

      Integral cutoff                 1.00e-12
      Number of threads:                 1

  Performing in-core PK
  Using 812 doubles for integral storage.
  We computed 120 shell quartets total.
  Whereas there are 120 unique shell quartets.

  ==> DiskJK: Disk-Based J/K Matrices <==

    J tasked:                  Yes
    K tasked:                  Yes
    wK tasked:                  No
    Memory [MiB]:              375
    Schwarz Cutoff:          1E-12

    OpenMP threads:              1

  Minimum eigenvalue in the overlap matrix is 3.6318018686E-01.
  Using Symmetric Orthogonalization.

  SCF Guess: Superposition of Atomic Densities via on-the-fly atomic UHF.

  ==> Iterations <==

                        Total Energy        Delta E     RMS |[F,P]|

   @RHF iter SAD:   -74.14826254766859   -7.41483e+01   0.00000e+00 
   @RHF iter   1:   -74.91085804691130   -7.62595e-01   5.64728e-02 DIIS
   @RHF iter   2:   -74.96483484512699   -5.39768e-02   9.07035e-03 DIIS
   @RHF iter   3:   -74.96583206277573   -9.97218e-04   1.96052e-03 DIIS
   @RHF iter   4:   -74.96590036438708   -6.83016e-05   1.59774e-04 DIIS
   @RHF iter   5:   -74.96590118275850   -8.18371e-07   1.84024e-05 DIIS
   @RHF iter   6:   -74.96590119229859   -9.54009e-09   2.63375e-07 DIIS
   @RHF iter   7:   -74.96590119230021   -1.62004e-12   1.00653e-09 DIIS
  Energy and wave function converged.


  ==> Post-Iterations <==

    Orbital Energies [Eh]
    ---------------------

    Doubly Occupied:                                                      

       1A1   -20.251577     2A1    -1.257549     1B2    -0.593855  
       3A1    -0.459730     1B1    -0.392617  

    Virtual:                                                              

       4A1     0.581794     2B2     0.692674  

    Final Occupation by Irrep:
             A1    A2    B1    B2 
    DOCC [     3,    0,    1,    1 ]

  @RHF Final Energy:   -74.96590119230021

   => Energetics <=

    Nuclear Repulsion Energy =              8.9064892593783789
    One-Electron Energy =                -121.8341245591877424
    Two-Electron Energy =                  37.9617341075091517
    Total Energy =                        -74.9659011923002083

Computation Completed


Properties will be evaluated at   0.000000,   0.000000,   0.000000 [a0]

Properties computed using the SCF density matrix

  Nuclear Dipole Moment: [e a0]
     X:     0.0000      Y:     0.0000      Z:     1.0583

  Electronic Dipole Moment: [e a0]
     X:     0.0000      Y:     0.0000      Z:    -0.3859

  Dipole Moment: [e a0]
     X:     0.0000      Y:     0.0000      Z:     0.6725     Total:     0.6725

  Dipole Moment: [D]
     X:     0.0000      Y:     0.0000      Z:     1.7092     Total:     1.7092


*** tstop() called on Aristotle at Mon Apr 27 17:07:27 2020
Module time:
	user time   =       0.38 seconds =       0.01 minutes
	system time =       0.01 seconds =       0.00 minutes
	total time  =          1 seconds =       0.02 minutes
Total time:
	user time   =       0.83 seconds =       0.01 minutes
	system time =       0.01 seconds =       0.00 minutes
	total time  =          1 seconds =       0.02 minutes

*** tstart() called on Aristotle
*** at Mon Apr 27 17:07:27 2020


         ------------------------------------------------------------
                                   SCF GRAD                          
                          Rob Parrish, Justin Turney,                
                       Andy Simmonett, and Alex Sokolov              
         ------------------------------------------------------------

  ==> Geometry <==

    Molecular point group: c2v
    Full point group: C2v

    Geometry (in Angstrom), charge = 0, multiplicity = 1:

       Center              X                  Y                   Z               Mass       
    ------------   -----------------  -----------------  -----------------  -----------------
         O            0.000000000000     0.000000000000    -0.071155726203    15.994914619570
         H            0.000000000000    -0.758080658651     0.564646505552     1.007825032230
         H            0.000000000000     0.758080658651     0.564646505552     1.007825032230

  Nuclear repulsion =    8.906489259378379

  ==> Basis Set <==

  Basis Set: STO-3G
    Blend: STO-3G
    Number of shells: 5
    Number of basis function: 7
    Number of Cartesian functions: 7
    Spherical Harmonics?: true
    Max angular momentum: 1

  ==> DirectJKGrad: Integral-Direct SCF Gradients <==

    Gradient:                    1
    J tasked:                  Yes
    K tasked:                  Yes
    wK tasked:                  No
    Integrals threads:           1
    Schwarz Cutoff:          0E+00


  -Total Gradient:
     Atom            X                  Y                   Z
    ------   -----------------  -----------------  -----------------
       1       -0.000000000000     0.000000000000     0.000000025581
       2       -0.000000000000     0.000000016289    -0.000000012790
       3        0.000000000000    -0.000000016289    -0.000000012790


*** tstop() called on Aristotle at Mon Apr 27 17:07:27 2020
Module time:
	user time   =       0.05 seconds =       0.00 minutes
	system time =       0.00 seconds =       0.00 minutes
	total time  =          0 seconds =       0.00 minutes
Total time:
	user time   =       0.88 seconds =       0.01 minutes
	system time =       0.01 seconds =       0.00 minutes
	total time  =          1 seconds =       0.02 minutes

  Based on options and gradient (rms=1.30E-08), recommend projecting translations and projecting rotations.
hessian() will perform analytic frequency computation.

*** tstart() called on Aristotle
*** at Mon Apr 27 17:07:27 2020

   => Loading Basis Set <=

    Name: STO-3G
    Role: ORBITAL
    Keyword: BASIS
    atoms 1   entry O          line    81 file /home/joseph/miniconda3/share/psi4/basis/sto-3g.gbs 
    atoms 2-3 entry H          line    19 file /home/joseph/miniconda3/share/psi4/basis/sto-3g.gbs 


         ---------------------------------------------------------
                                   SCF
               by Justin Turney, Rob Parrish, Andy Simmonett
                          and Daniel G. A. Smith
                              RHF Reference
                        1 Threads,    500 MiB Core
         ---------------------------------------------------------

  ==> Geometry <==

    Molecular point group: c2v
    Full point group: C2v

    Geometry (in Angstrom), charge = 0, multiplicity = 1:

       Center              X                  Y                   Z               Mass       
    ------------   -----------------  -----------------  -----------------  -----------------
         O            0.000000000000     0.000000000000    -0.071155726203    15.994914619570
         H            0.000000000000    -0.758080658651     0.564646505552     1.007825032230
         H            0.000000000000     0.758080658651     0.564646505552     1.007825032230

  Running in c2v symmetry.

  Rotational constants: A =     23.29607  B =     14.55293  C =      8.95733 [cm^-1]
  Rotational constants: A = 698398.61557  B = 436285.95248  C = 268534.10523 [MHz]
  Nuclear repulsion =    8.906489259378379

  Charge       = 0
  Multiplicity = 1
  Electrons    = 10
  Nalpha       = 5
  Nbeta        = 5

  ==> Algorithm <==

  SCF Algorithm Type is PK.
  DIIS enabled.
  MOM disabled.
  Fractional occupation disabled.
  Guess Type is SAD.
  Energy threshold   = 1.00e-08
  Density threshold  = 1.00e-08
  Integral threshold = 0.00e+00

  ==> Primary Basis <==

  Basis Set: STO-3G
    Blend: STO-3G
    Number of shells: 5
    Number of basis function: 7
    Number of Cartesian functions: 7
    Spherical Harmonics?: true
    Max angular momentum: 1

  ==> Pre-Iterations <==

   -------------------------------------------------------
    Irrep   Nso     Nmo     Nalpha   Nbeta   Ndocc  Nsocc
   -------------------------------------------------------
     A1         4       4       0       0       0       0
     A2         0       0       0       0       0       0
     B1         1       1       0       0       0       0
     B2         2       2       0       0       0       0
   -------------------------------------------------------
    Total       7       7       5       5       5       0
   -------------------------------------------------------

  ==> Integral Setup <==

  Using in-core PK algorithm.
   Calculation information:
      Number of atoms:                   3
      Number of AO shells:               5
      Number of primitives:             15
      Number of atomic orbitals:         7
      Number of basis functions:         7

      Integral cutoff                 1.00e-12
      Number of threads:                 1

  Performing in-core PK
  Using 812 doubles for integral storage.
  We computed 120 shell quartets total.
  Whereas there are 120 unique shell quartets.

  ==> DiskJK: Disk-Based J/K Matrices <==

    J tasked:                  Yes
    K tasked:                  Yes
    wK tasked:                  No
    Memory [MiB]:              375
    Schwarz Cutoff:          1E-12

    OpenMP threads:              1

  Minimum eigenvalue in the overlap matrix is 3.6318018686E-01.
  Using Symmetric Orthogonalization.

  SCF Guess: Superposition of Atomic Densities via on-the-fly atomic UHF.

  ==> Iterations <==

                        Total Energy        Delta E     RMS |[F,P]|

   @RHF iter SAD:   -74.14826254766859   -7.41483e+01   0.00000e+00 
   @RHF iter   1:   -74.91085804691130   -7.62595e-01   5.64728e-02 DIIS
   @RHF iter   2:   -74.96483484512699   -5.39768e-02   9.07035e-03 DIIS
   @RHF iter   3:   -74.96583206277573   -9.97218e-04   1.96052e-03 DIIS
   @RHF iter   4:   -74.96590036438708   -6.83016e-05   1.59774e-04 DIIS
   @RHF iter   5:   -74.96590118275850   -8.18371e-07   1.84024e-05 DIIS
   @RHF iter   6:   -74.96590119229859   -9.54009e-09   2.63375e-07 DIIS
   @RHF iter   7:   -74.96590119230021   -1.62004e-12   1.00653e-09 DIIS
  Energy and wave function converged.


  ==> Post-Iterations <==

    Orbital Energies [Eh]
    ---------------------

    Doubly Occupied:                                                      

       1A1   -20.251577     2A1    -1.257549     1B2    -0.593855  
       3A1    -0.459730     1B1    -0.392617  

    Virtual:                                                              

       4A1     0.581794     2B2     0.692674  

    Final Occupation by Irrep:
             A1    A2    B1    B2 
    DOCC [     3,    0,    1,    1 ]

  @RHF Final Energy:   -74.96590119230021

   => Energetics <=

    Nuclear Repulsion Energy =              8.9064892593783789
    One-Electron Energy =                -121.8341245591877424
    Two-Electron Energy =                  37.9617341075091517
    Total Energy =                        -74.9659011923002083

Computation Completed


Properties will be evaluated at   0.000000,   0.000000,   0.000000 [a0]

Properties computed using the SCF density matrix

  Nuclear Dipole Moment: [e a0]
     X:     0.0000      Y:     0.0000      Z:     1.0583

  Electronic Dipole Moment: [e a0]
     X:     0.0000      Y:     0.0000      Z:    -0.3859

  Dipole Moment: [e a0]
     X:     0.0000      Y:     0.0000      Z:     0.6725     Total:     0.6725

  Dipole Moment: [D]
     X:     0.0000      Y:     0.0000      Z:     1.7092     Total:     1.7092


*** tstop() called on Aristotle at Mon Apr 27 17:07:27 2020
Module time:
	user time   =       0.38 seconds =       0.01 minutes
	system time =       0.00 seconds =       0.00 minutes
	total time  =          0 seconds =       0.00 minutes
Total time:
	user time   =       1.27 seconds =       0.02 minutes
	system time =       0.01 seconds =       0.00 minutes
	total time  =          1 seconds =       0.02 minutes

*** tstart() called on Aristotle
*** at Mon Apr 27 17:07:27 2020


         ------------------------------------------------------------
                                   SCF HESS                          
                          Rob Parrish, Justin Turney,                
                       Andy Simmonett, and Alex Sokolov              
         ------------------------------------------------------------

  ==> Geometry <==

    Molecular point group: c2v
    Full point group: C2v

    Geometry (in Angstrom), charge = 0, multiplicity = 1:

       Center              X                  Y                   Z               Mass       
    ------------   -----------------  -----------------  -----------------  -----------------
         O            0.000000000000     0.000000000000    -0.071155726203    15.994914619570
         H            0.000000000000    -0.758080658651     0.564646505552     1.007825032230
         H            0.000000000000     0.758080658651     0.564646505552     1.007825032230

  Nuclear repulsion =    8.906489259378379

  ==> Basis Set <==

  Basis Set: STO-3G
    Blend: STO-3G
    Number of shells: 5
    Number of basis function: 7
    Number of Cartesian functions: 7
    Spherical Harmonics?: true
    Max angular momentum: 1

  ==> DirectJKGrad: Integral-Direct SCF Gradients <==

    Gradient:                    2
    J tasked:                  Yes
    K tasked:                  Yes
    wK tasked:                  No
    Integrals threads:           1
    Schwarz Cutoff:          0E+00

  Using in-core PK algorithm.
   Calculation information:
      Number of atoms:                   3
      Number of AO shells:               5
      Number of primitives:             15
      Number of atomic orbitals:         7
      Number of basis functions:         7

      Integral cutoff                 1.00e-12
      Number of threads:                 1

  Performing in-core PK
  Using 812 doubles for integral storage.
  We computed 120 shell quartets total.
  Whereas there are 120 unique shell quartets.

  ==> DiskJK: Disk-Based J/K Matrices <==

    J tasked:                  Yes
    K tasked:                  Yes
    wK tasked:                  No
    Memory [MiB]:              450
    Schwarz Cutoff:          1E-12

    OpenMP threads:              1


         ------------------------------------------------------------
                                     CPHF                           
                                  Rob Parrish                       
         ------------------------------------------------------------

  ==> Geometry <==

    Molecular point group: c2v
    Full point group: C2v

    Geometry (in Angstrom), charge = 0, multiplicity = 1:

       Center              X                  Y                   Z               Mass       
    ------------   -----------------  -----------------  -----------------  -----------------
         O            0.000000000000     0.000000000000    -0.071155726203    15.994914619570
         H            0.000000000000    -0.758080658651     0.564646505552     1.007825032230
         H            0.000000000000     0.758080658651     0.564646505552     1.007825032230

  Nuclear repulsion =    8.906489259378379
  Reference energy  =  -74.965901192300208

  ==> Basis Set <==

  Basis Set: STO-3G
    Blend: STO-3G
    Number of shells: 5
    Number of basis function: 7
    Number of Cartesian functions: 7
    Spherical Harmonics?: true
    Max angular momentum: 1

  ==> CGRSolver (by Rob Parrish) <==

   Number of roots    =         9
   Preconditioning    =    JACOBI
   Convergence cutoff =     1E-06
   Maximum iterations =       100

  ==> CPHFRHamiltonian (by Rob Parrish) <== 

  ==> DiskJK: Disk-Based J/K Matrices <==

    J tasked:                  Yes
    K tasked:                  Yes
    wK tasked:                  No
    Memory [MiB]:              450
    Schwarz Cutoff:          1E-12

    OpenMP threads:              1

  ==> CPHF Iterations <==

  => Iterations <=

             Iter  Converged  Remaining    Residual
  CGR           1          1          8   6.928E-02
  CGR           2          3          6   1.019E-02
  CGR           3          3          6   1.225E-03
  CGR           4          5          4   2.658E-04
  CGR           5          5          4   3.581E-05
  CGR           6          9          0   3.024E-07

    CGRSolver converged.


*** tstop() called on Aristotle at Mon Apr 27 17:07:27 2020
Module time:
	user time   =       0.22 seconds =       0.00 minutes
	system time =       0.03 seconds =       0.00 minutes
	total time  =          0 seconds =       0.00 minutes
Total time:
	user time   =       1.49 seconds =       0.02 minutes
	system time =       0.04 seconds =       0.00 minutes
	total time  =          1 seconds =       0.02 minutes


  ==> Harmonic Vibrational Analysis <==

  non-mass-weighted Hessian:       Symmetric? True   Hermitian? True   Lin Dep Dim?  0 (0)
  projection of translations (True) and rotations (True) removed 6 degrees of freedom (6)
  total projector:                 Symmetric? True   Hermitian? True   Lin Dep Dim?  6 (6)
  mass-weighted Hessian:           Symmetric? True   Hermitian? True   Lin Dep Dim?  0 (0)
  pre-proj  low-frequency mode:    0.0000i [cm^-1]
  pre-proj  low-frequency mode:    0.0000i [cm^-1]
  pre-proj  low-frequency mode:    0.0000i [cm^-1]
  pre-proj  low-frequency mode:    0.0007  [cm^-1]
  pre-proj  low-frequency mode:    0.0008  [cm^-1]
  pre-proj  low-frequency mode:    0.0009  [cm^-1]
  pre-proj  all modes:['0.5602i' '0.5513i' '0.5459i' '0.0007' '0.0008' '0.0009' '2170.0459'
 '4140.0021' '4391.0669']
  projected mass-weighted Hessian: Symmetric? True   Hermitian? True   Lin Dep Dim?  6 (6)
  post-proj low-frequency mode:    0.0001i [cm^-1] (TR)
  post-proj low-frequency mode:    0.0001i [cm^-1] (TR)
  post-proj low-frequency mode:    0.0000i [cm^-1] (TR)
  post-proj low-frequency mode:    0.0000i [cm^-1] (TR)
  post-proj low-frequency mode:    0.0000  [cm^-1] (TR)
  post-proj low-frequency mode:    0.0001  [cm^-1] (TR)
  post-proj  all modes:['0.0001i' '0.0001i' '0.0000i' '0.0000i' '0.0000' '0.0001' '2170.0459'
 '4140.0021' '4391.0669']

  Vibration                       7                   8                   9           
  Freq [cm^-1]                2170.0459           4140.0021           4391.0669       
  Irrep                           A1                  A1                  B2          
  Reduced mass [u]              1.0785              1.0491              1.0774        
  Force const [mDyne/A]         2.9923             10.5941             12.2392        
  Turning point v=0 [a0]        0.2268              0.1665              0.1595        
  RMS dev v=0 [a0 u^1/2]        0.1666              0.1206              0.1171        
  IR activ [km/mol]             7.2377             44.2870             29.9720        
  Char temp [K]               3122.2129           5956.5413           6317.7676       
  ----------------------------------------------------------------------------------
      1   O                0.00  0.00 -0.07    0.00  0.00  0.05    0.00 -0.07  0.00   
      2   H               -0.00  0.45  0.54    0.00  0.57 -0.42   -0.00  0.54 -0.45   
      3   H               -0.00 -0.45  0.54   -0.00 -0.57 -0.42   -0.00  0.54  0.45   

  ==> Thermochemistry Components <==

  Entropy, S
    Electronic S            0.000 [cal/(mol K)]        0.000 [J/(mol K)]       0.00000000 [mEh/K] (multiplicity = 1)
    Translational S        34.608 [cal/(mol K)]      144.801 [J/(mol K)]       0.05515177 [mEh/K] (mol. weight = 18.0106 [u], P = 101325.00 [Pa])
    Rotational S           10.673 [cal/(mol K)]       44.654 [J/(mol K)]       0.01700782 [mEh/K] (symmetry no. = 2)
    Vibrational S           0.001 [cal/(mol K)]        0.003 [J/(mol K)]       0.00000103 [mEh/K]
  Total S                  45.281 [cal/(mol K)]      189.458 [J/(mol K)]       0.07216062 [mEh/K]
  Correction S              0.000 [cal/(mol K)]        0.000 [J/(mol K)]       0.00000000 [mEh/K]

  Constant volume heat capacity, Cv
    Electronic Cv           0.000 [cal/(mol K)]        0.000 [J/(mol K)]       0.00000000 [mEh/K]
    Translational Cv        2.981 [cal/(mol K)]       12.472 [J/(mol K)]       0.00475022 [mEh/K]
    Rotational Cv           2.981 [cal/(mol K)]       12.472 [J/(mol K)]       0.00475022 [mEh/K]
    Vibrational Cv          0.006 [cal/(mol K)]        0.026 [J/(mol K)]       0.00000984 [mEh/K]
  Total Cv                  5.968 [cal/(mol K)]       24.969 [J/(mol K)]       0.00951027 [mEh/K]
  Correction Cv             0.000 [cal/(mol K)]        0.000 [J/(mol K)]       0.00000000 [mEh/K]

  Constant pressure heat capacity, Cp
    Electronic Cp           0.000 [cal/(mol K)]        0.000 [J/(mol K)]       0.00000000 [mEh/K]
    Translational Cp        4.968 [cal/(mol K)]       20.786 [J/(mol K)]       0.00791703 [mEh/K]
    Rotational Cp           2.981 [cal/(mol K)]       12.472 [J/(mol K)]       0.00475022 [mEh/K]
    Vibrational Cp          0.006 [cal/(mol K)]        0.026 [J/(mol K)]       0.00000984 [mEh/K]
  Total Cp                  7.955 [cal/(mol K)]       33.284 [J/(mol K)]       0.01267708 [mEh/K]
  Correction Cp             0.000 [cal/(mol K)]        0.000 [J/(mol K)]       0.00000000 [mEh/K]

  ==> Thermochemistry Energy Analysis <==

  Raw electronic energy, E0
  Total E0, Electronic energy at well bottom at 0 [K]                  -74.96590119 [Eh]

  Zero-point energy, ZPE_vib = Sum_i nu_i / 2
    Electronic ZPE          0.000 [kcal/mol]        0.000 [kJ/mol]       0.00000000 [Eh]
    Translational ZPE       0.000 [kcal/mol]        0.000 [kJ/mol]       0.00000000 [Eh]
    Rotational ZPE          0.000 [kcal/mol]        0.000 [kJ/mol]       0.00000000 [Eh]
    Vibrational ZPE        15.298 [kcal/mol]       64.007 [kJ/mol]       0.02437893 [Eh]        5350.557 [cm^-1]
  Correction ZPE           15.298 [kcal/mol]       64.007 [kJ/mol]       0.02437893 [Eh]        5350.557 [cm^-1]
  Total ZPE, Electronic energy at 0 [K]                                -74.94152226 [Eh]

  Thermal Energy, E (includes ZPE)
    Electronic E            0.000 [kcal/mol]        0.000 [kJ/mol]       0.00000000 [Eh]
    Translational E         0.889 [kcal/mol]        3.718 [kJ/mol]       0.00141628 [Eh]
    Rotational E            0.889 [kcal/mol]        3.718 [kJ/mol]       0.00141628 [Eh]
    Vibrational E          15.298 [kcal/mol]       64.008 [kJ/mol]       0.02437921 [Eh]
  Correction E             17.076 [kcal/mol]       71.444 [kJ/mol]       0.02721177 [Eh]
  Total E, Electronic energy at  298.15 [K]                            -74.93868943 [Eh]

  Enthalpy, H_trans = E_trans + k_B * T
    Electronic H            0.000 [kcal/mol]        0.000 [kJ/mol]       0.00000000 [Eh]
    Translational H         1.481 [kcal/mol]        6.197 [kJ/mol]       0.00236046 [Eh]
    Rotational H            0.889 [kcal/mol]        3.718 [kJ/mol]       0.00141628 [Eh]
    Vibrational H          15.298 [kcal/mol]       64.008 [kJ/mol]       0.02437921 [Eh]
  Correction H             17.668 [kcal/mol]       73.923 [kJ/mol]       0.02815595 [Eh]
  Total H, Enthalpy at  298.15 [K]                                     -74.93774524 [Eh]

  Gibbs free energy, G = H - T * S
    Electronic G            0.000 [kcal/mol]        0.000 [kJ/mol]       0.00000000 [Eh]
    Translational G        -8.837 [kcal/mol]      -36.975 [kJ/mol]      -0.01408304 [Eh]
    Rotational G           -2.293 [kcal/mol]       -9.595 [kJ/mol]      -0.00365461 [Eh]
    Vibrational G          15.298 [kcal/mol]       64.007 [kJ/mol]       0.02437891 [Eh]
  Correction G              4.167 [kcal/mol]       17.437 [kJ/mol]       0.00664126 [Eh]
  Total G, Free enthalpy at  298.15 [K]                                -74.95925993 [Eh]

    Psi4 stopped on: Monday, 27 April 2020 05:07PM
    Psi4 wall time for execution: 0:00:01.66

*** Psi4 exiting successfully. Buy a developer a beer!
