[Molden Format]

[FREQ]
        2170.0459357138
        4140.0021254577
        4391.0668875129

[FR-COORD]
O          0.0000000000        0.0000000000       -0.1344648348
H          0.0000000000       -1.4325648259        1.0670272532
H          0.0000000000        1.4325648259        1.0670272532

[FR-NORM-COORD]
vibration 1
           0.0000000000        0.0000000000       -0.0686679211
          -0.0000000000        0.4480190189        0.5449048697
          -0.0000000000       -0.4480190189        0.5449048697
vibration 2
           0.0000000000        0.0000000000        0.0524753697
           0.0000000000        0.5702849857       -0.4164110984
          -0.0000000000       -0.5702849857       -0.4164110984
vibration 3
           0.0000000000       -0.0681157880        0.0000000000
          -0.0000000000        0.5405234929       -0.4533370416
          -0.0000000000        0.5405234929        0.4533370416
