[Molden Format]
[Atoms] (AU)
O    1    8         0.000000000000       0.000000000000      -0.134464834782
H    2    1         0.000000000000      -1.432564825858       1.067027253191
H    3    1         0.000000000000       1.432564825858       1.067027253191
[GTO]
  1 0
 s    3  1.00
      130.7093200000         0.1543289700
       23.8088610000         0.5353281400
        6.4436083000         0.4446345400
 s    3  1.00
        5.0331513000        -0.0999672300
        1.1695961000         0.3995128300
        0.3803890000         0.7001154700
 p    3  1.00
        5.0331513000         0.1559162700
        1.1695961000         0.6076837200
        0.3803890000         0.3919573900

  2 0
 s    3  1.00
        3.4252509100         0.1543289700
        0.6239137300         0.5353281400
        0.1688554000         0.4446345400

  3 0
 s    3  1.00
        3.4252509100         0.1543289700
        0.6239137300         0.5353281400
        0.1688554000         0.4446345400

[5D]
[9G]

[MO]
 Sym= A1
 Ene= -1.10136364248873975e-16
 Spin= Alpha
 Occup= -2.20272728497747950e-16
  1  2.79563387548292311e-02
  2 -2.68687416082627251e-01
  3  0.00000000000000000e+00
  4  0.00000000000000000e+00
  5 -1.02932631688220511e+00
  6  4.92057447233213929e-01
  7  4.92057447233213929e-01
 Sym= B2
 Ene=  0.00000000000000000e+00
 Spin= Alpha
 Occup=  0.00000000000000000e+00
  1  0.00000000000000000e+00
  2  0.00000000000000000e+00
  3  0.00000000000000000e+00
  4 -1.10729880570441419e+00
  5  0.00000000000000000e+00
  6 -2.42171754319182753e-01
  7  2.42171754319182753e-01
 Sym= A1
 Ene=  5.82751794947126367e-01
 Spin= Alpha
 Occup=  1.16550358989425273e+00
  1 -4.99310781574821116e-01
  2  1.21585407228020581e+00
  3  0.00000000000000000e+00
  4  0.00000000000000000e+00
  5 -2.49475436147572616e-03
  6 -4.53406583089381698e-01
  7 -4.53406583089381698e-01
 Sym= B2
 Ene=  7.78997613260927979e-01
 Spin= Alpha
 Occup=  1.55799522652185596e+00
  1  0.00000000000000000e+00
  2  0.00000000000000000e+00
  3  0.00000000000000000e+00
  4  2.65533067534024891e-01
  5  0.00000000000000000e+00
  6  8.98222492343764278e-01
  7 -8.98222492343764278e-01
 Sym= A1
 Ene=  9.23827545558623342e-01
 Spin= Alpha
 Occup=  1.84765509111724668e+00
  1  7.72391079758625865e-01
  2  1.81108388414740473e-01
  3  0.00000000000000000e+00
  4  0.00000000000000000e+00
  5 -1.86426241142361893e-01
  6 -3.93732867253280605e-01
  7 -3.93732867253280605e-01
 Sym= B1
 Ene=  1.00000000000000044e+00
 Spin= Alpha
 Occup=  2.00000000000000089e+00
  1  0.00000000000000000e+00
  2  0.00000000000000000e+00
  3  1.00000000000000022e+00
  4  0.00000000000000000e+00
  5  0.00000000000000000e+00
  6  0.00000000000000000e+00
  7  0.00000000000000000e+00
 Sym= A1
 Ene=  1.35985219615554209e+00
 Spin= Alpha
 Occup=  2.71970439231108418e+00
  1 -4.72319840708477545e-01
  2 -3.04516127652535107e-01
  3  0.00000000000000000e+00
  4  0.00000000000000000e+00
  5 -2.74215667173496991e-01
  6 -3.16569836530485149e-01
  7 -3.16569836530485149e-01
